version 2
run Chord-0-20160416-14:25:54-684
attr configname Chord
attr datetime 20160416-14:25:54
attr experiment Chord
attr inifile omnetpp.ini
attr iterationvars ""
attr iterationvars2 $repetition=0
attr measurement ""
attr network oversim.underlay.simpleunderlay.SimpleUnderlayNetwork
attr processid 684
attr repetition 0
attr replication #0
attr resultdir results
attr runnumber 0
attr seedset 0

vector 1  SimpleUnderlayNetwork.globalObserver.globalStatistics  "GlobalNodeList: Number of nodes"  ETV
vector 2  SimpleUnderlayNetwork.globalObserver.globalStatistics  "KBRTestApp: One-way Hop Count"  ETV
vector 3  SimpleUnderlayNetwork.globalObserver.globalStatistics  "KBRTestApp: One-way Latency"  ETV
vector 4  SimpleUnderlayNetwork.globalObserver.globalStatistics  "LifetimeChurn: Time between deletes"  ETV
1	1856	50	10
1	2995	100	10
1	4785	150	10
1	5888	200	9
1	7463	250	9
1	8510	300	9
1	9593	350	9
1	11050	400	9
2	1914	51.307685156	2
2	2003	56.10360475	3
2	2020	56.296026572	3
2	2071	59.243777662	3
2	2158	61.523031881	3
2	2188	61.960681836	3
2	2194	62.150702914	3
2	2345	66.506766758	0
2	2458	70.739870919	3
2	2583	79.708645456	0
2	3170	105.461776773	0
2	3324	111.812883344	3
2	3427	118.591357008	2
2	3441	118.935636816	2
2	3674	121.92537553	3
2	3690	122.24378385	2
2	3716	122.718168797	0
2	3731	122.800804959	3
2	4460	135.505829178	0
2	4588	141.915530163	3
2	4991	160.974916347	2
2	5092	164.797841282	2
2	5273	171.86623086	0
2	5306	173.602637231	2
2	5373	176.822102431	3
2	5393	177.508852196	3
2	5567	184.530991158	3
2	5707	188.611556341	3
2	5865	198.074649447	2
2	6340	221.424576157	3
2	6421	224.919602725	2
2	6475	225.428829661	3
2	6493	225.729575331	3
2	6553	227.670632899	3
2	6740	239.590618613	3
2	7330	247.424811468	2
2	7580	253.601038527	3
2	7736	261.621785552	3
2	8042	277.979544305	2
2	8109	280.551716092	3
2	8124	280.733371373	3
2	8218	284.474939164	3
2	8386	290.673301604	2
2	8467	295.506598708	3
2	8711	307.225774822	2
2	8804	310.631445497	3
2	8824	311.652902317	0
2	9309	340.261549123	0
2	9393	343.984679588	3
2	9446	344.681813746	3
2	9560	348.223233934	3
2	9592	349.980076546	3
2	9687	354.610553828	3
2	9745	357.596739941	3
2	10490	369.525007269	3
2	10589	371.617925221	2
2	11117	402.034168166	0
2	11143	403.69718998	2
2	11284	407.680789214	2
2	11309	409.465665916	0
2	11340	410.117455663	2
2	11427	415.279156214	0
2	11553	422.696931805	2
2	11719	428.812765264	3
3	1914	51.307685156	0.25932352
3	2003	56.10360475	0.779222126
3	2020	56.296026572	0.260265682
3	2071	59.243777662	0.35589205
3	2158	61.523031881	0.2846177
3	2188	61.960681836	0.350691131
3	2194	62.150702914	0.347400266
3	2345	66.506766758	0
3	2458	70.739870919	0.368711756
3	2583	79.708645456	0
3	3170	105.461776773	0
3	3324	111.812883344	0.225571815
3	3427	118.591357008	0.493175716
3	3441	118.935636816	0.136093043
3	3674	121.92537553	0.548039152
3	3690	122.24378385	0.177453061
3	3716	122.718168797	0
3	3731	122.800804959	0.260321982
3	4460	135.505829178	0
3	4588	141.915530163	0.30669078
3	4991	160.974916347	0.304639942
3	5092	164.797841282	0.060508463
3	5273	171.86623086	0
3	5306	173.602637231	0.267891525
3	5373	176.822102431	0.268031255
3	5393	177.508852196	0.55251213
3	5567	184.530991158	0.36836324
3	5707	188.611556341	0.472611884
3	5865	198.074649447	0.103713816
3	6340	221.424576157	0.541186799
3	6421	224.919602725	0.439935207
3	6475	225.428829661	0.342911909
3	6493	225.729575331	0.13159554
3	6553	227.670632899	0.368010503
3	6740	239.590618613	0.557591672
3	7330	247.424811468	0.11691498
3	7580	253.601038527	0.280477209
3	7736	261.621785552	0.427232378
3	8042	277.979544305	0.245741724
3	8109	280.551716092	0.82487605
3	8124	280.733371373	0.267306516
3	8218	284.474939164	0.347953641
3	8386	290.673301604	0.221451117
3	8467	295.506598708	0.295292847
3	8711	307.225774822	0.304217078
3	8804	310.631445497	0.288432263
3	8824	311.652902317	0
3	9309	340.261549123	0
3	9393	343.984679588	0.348454506
3	9446	344.681813746	0.140681669
3	9560	348.223233934	0.281950563
3	9592	349.980076546	0.320712505
3	9687	354.610553828	0.122409186
3	9745	357.596739941	0.430086206
3	10490	369.525007269	0.546336963
3	10589	371.617925221	0.57064697
3	11117	402.034168166	0
3	11143	403.69718998	0.099504913
3	11284	407.680789214	0.499114171
3	11309	409.465665916	0
3	11340	410.117455663	0.26177903
3	11427	415.279156214	0
3	11553	422.696931805	0.101384392
3	11719	428.812765264	0.470253005
4	5545	184.182294204	184.182294204
