version 2
run CustomChord-0-20160416-16:16:20-1512
attr configname CustomChord
attr datetime 20160416-16:16:20
attr experiment CustomChord
attr inifile omnetpp.ini
attr iterationvars ""
attr iterationvars2 $repetition=0
attr measurement ""
attr network oversim.underlay.simpleunderlay.SimpleUnderlayNetwork
attr processid 1512
attr repetition 0
attr replication #0
attr resultdir results
attr runnumber 0
attr seedset 0

vector 1  SimpleUnderlayNetwork.globalObserver.globalStatistics  "KBRTestApp: One-way Hop Count"  ETV
vector 2  SimpleUnderlayNetwork.globalObserver.globalStatistics  "KBRTestApp: One-way Latency"  ETV
vector 3  SimpleUnderlayNetwork.globalObserver.globalStatistics  "GlobalNodeList: Number of nodes"  ETV
1	156849	252.373353685	7
1	158103	253.893618332	4
1	159379	254.96030464	4
1	159568	255.162000883	6
1	159651	255.260722291	5
1	160426	255.998163444	6
1	160569	256.146008513	4
1	160714	256.332494297	2
1	160852	256.461721078	4
1	161247	256.842043774	3
1	161657	257.18531678	6
1	161705	257.214734575	5
1	162052	257.484283828	3
1	162327	257.688174445	6
1	162330	257.691873526	5
1	162398	257.77117041	3
1	163100	258.343097673	5
1	163204	258.398608715	4
1	163313	258.46369418	6
1	163364	258.503610488	4
1	163630	258.770918826	4
1	164028	259.152632101	6
1	164255	259.438791538	3
1	164462	259.599719944	5
1	164562	259.69031685	4
1	164682	259.806882092	6
1	164997	260.145017253	5
1	165288	260.536542091	5
1	165335	260.610195943	4
1	165338	260.612626527	4
1	165396	260.653941621	4
1	165531	260.768518552	5
1	165856	261.054795633	6
1	165861	261.068436546	4
1	166187	261.467832557	4
1	166391	261.712756527	7
1	166509	261.806273292	6
1	166645	261.968387896	6
1	166668	261.995734912	4
1	167152	262.43175071	6
1	167743	263.000966714	3
1	168000	263.250214566	4
1	168222	263.387728628	6
1	168504	263.609917182	5
1	169122	264.277136825	6
1	169286	264.393344009	5
1	169703	264.681988155	3
1	170332	265.333533792	5
1	170607	265.64403763	5
1	170697	265.704114404	4
1	171100	266.006503804	3
1	171965	266.754640514	4
1	171971	266.759590777	5
1	173247	267.801750866	5
1	173387	267.866479165	5
1	173437	267.901146911	7
1	173947	268.476962801	3
1	174003	268.534361084	6
1	174304	268.898909356	7
1	174650	269.230357647	4
1	174655	269.236668319	4
1	175122	269.752371323	7
1	175780	270.311758509	7
1	175810	270.33342743	4
1	176074	270.605186175	7
1	176292	270.888602983	6
1	176656	271.254370307	7
1	176898	271.429919262	6
1	177253	271.849285408	4
1	177727	272.431440502	5
1	178283	272.805543841	4
1	178554	272.984627233	5
1	178644	273.101856699	6
1	178674	273.131743501	4
1	178692	273.149108712	4
1	178706	273.159343322	5
1	178813	273.290917267	6
1	179079	273.660425196	6
1	179151	273.743672223	4
1	179395	274.040672024	6
1	179495	274.169254944	5
1	179882	274.686400289	4
1	179890	274.712316084	5
1	180190	275.015790829	5
1	180205	275.044901485	3
1	180488	275.324672311	5
1	180637	275.459584689	3
1	181356	276.226610095	5
1	181571	276.450212577	5
1	181958	276.772245389	4
1	182034	276.823431526	4
1	182102	276.86009988	6
1	182110	276.867099539	2
1	182390	277.041086358	6
1	182910	277.295909224	5
1	183385	277.632965255	4
1	183727	277.934745074	5
1	183813	278.022690045	5
1	183997	278.15618719	6
1	184038	278.169812705	5
1	184455	278.402735026	4
1	184726	278.570314426	3
1	184742	278.577103683	5
1	184780	278.608615929	5
1	185064	278.884663305	4
1	185549	279.392682337	4
1	185677	279.489273306	5
1	186017	279.748181507	2
1	186022	279.749225683	4
1	186073	279.778589132	6
1	186080	279.791955884	6
1	186480	280.123752419	5
1	186649	280.285831687	3
1	186661	280.304400211	3
1	187009	280.58585045	5
1	187800	281.109091752	5
1	187941	281.197130644	6
1	187963	281.206408748	0
1	188044	281.27448195	6
1	188084	281.30157448	5
1	188138	281.3543786	4
1	188692	281.959503845	7
1	188946	282.25942248	5
1	188981	282.289790258	4
1	189857	283.017136396	5
1	190379	283.514553502	3
1	190936	283.87732276	4
1	191524	284.3136129	5
1	191569	284.375511871	4
1	192018	285.005390831	4
1	192112	285.121163815	2
1	193277	286.147293488	5
1	193283	286.153362417	5
1	193894	286.760190305	5
1	193996	286.885194307	5
1	194154	287.098066595	3
1	194317	287.214049994	4
1	194737	287.435846517	3
1	195644	288.245905324	5
1	195798	288.454923177	5
1	195967	288.578951273	4
1	196503	288.907360471	5
1	196647	288.995980364	4
1	197196	289.397552163	4
1	197208	289.40357683	3
1	197249	289.447771929	5
1	197390	289.590390623	6
1	197521	289.696325064	5
1	197565	289.743879371	3
1	197576	289.7544274	3
1	197707	289.916975614	7
1	197719	289.922598143	3
1	197982	290.12212819	4
1	198149	290.266915332	7
1	198225	290.330105939	4
1	198396	290.517034122	4
1	198546	290.683898471	3
1	198681	290.804893242	5
1	198962	291.197782285	4
1	199439	291.85690528	6
1	199619	292.022724004	3
1	200232	292.354336806	5
1	200483	292.492912668	6
1	200811	292.721124138	4
1	200826	292.724028962	6
1	200971	292.824124718	5
1	201476	293.525721951	7
1	201577	293.679166061	5
1	201617	293.750664499	8
1	202021	294.091600646	0
1	202377	294.448535991	4
1	202629	294.730807623	2
1	202828	294.995001308	5
1	202997	295.166403691	6
1	203121	295.316443451	4
1	203215	295.422154333	4
1	203351	295.567460549	4
1	203503	295.762369844	6
1	203825	296.054768672	4
1	203949	296.141753856	6
1	204350	296.44728195	5
1	204452	296.531605417	4
1	204471	296.553457893	7
1	204516	296.630703195	5
1	204689	296.848877316	5
1	204740	296.897395091	5
1	204943	297.07181278	3
1	205617	297.614377058	6
1	206033	297.930085988	8
1	206080	297.996843139	6
1	206299	298.233573383	6
1	206345	298.276977463	6
1	206726	298.612558566	4
1	206976	298.932662725	4
1	207167	299.097840362	4
1	207232	299.157477219	6
1	207255	299.191723958	4
1	207572	299.5561542	7
1	207578	299.561431698	6
1	207823	299.802789686	5
1	208680	300.645728805	6
1	208748	300.713114672	6
1	209052	300.934057532	2
1	209283	301.079678453	3
1	209447	301.158935564	4
1	209748	301.351032223	5
1	209775	301.370170626	4
1	209940	301.531493409	5
1	209969	301.560527812	4
1	209999	301.580326246	7
1	210555	301.958699666	5
1	210964	302.262632003	5
1	211065	302.310067883	5
1	211079	302.325005123	5
1	211323	302.419987047	3
1	211414	302.446960512	6
1	211772	302.635501012	5
1	211984	302.82522809	4
1	212131	302.970810467	5
1	212331	303.199388148	4
1	212495	303.349583112	3
1	212607	303.494047279	5
1	212627	303.516422414	7
1	213555	304.482854721	4
1	213833	304.722762151	7
1	213887	304.789798148	4
1	214127	305.126329922	3
1	215238	306.034471914	4
1	215261	306.07940787	3
1	216007	307.041355498	4
1	216022	307.047759858	2
1	216039	307.057340812	6
1	217214	308.305756452	6
1	217239	308.333686662	2
1	217733	308.771249443	5
1	217867	308.900368931	3
1	218171	309.137459695	6
1	218241	309.212116732	6
1	218305	309.2741101	4
1	218347	309.334881259	5
1	219233	310.075004464	7
1	219660	310.437515749	5
1	219872	310.698584733	4
1	219909	310.754111134	5
1	220027	310.908348121	6
1	220264	311.210721871	4
1	220407	311.324937701	7
1	222000	312.321534977	3
1	222044	312.355902233	4
1	222145	312.420650308	5
1	222716	312.900737155	7
1	222749	312.930176668	7
1	222757	312.933801065	3
1	223108	313.59525424	5
1	223155	313.635115035	6
1	223425	313.907112425	4
1	223536	314.030689643	6
1	223757	314.229376309	3
1	224070	314.545408616	4
1	224313	314.78869721	6
1	224458	314.996503282	6
1	224709	315.277378183	3
1	224785	315.404540068	4
1	224900	315.444961812	6
1	225605	315.943957651	3
1	225960	316.233602014	3
1	225973	316.242480993	5
1	226521	316.7872985	4
1	226822	317.050747621	5
1	226834	317.055945644	5
1	227595	317.604662211	5
1	227851	317.82929926	5
1	227967	317.956961064	5
1	228155	318.203725465	6
1	228823	318.83433154	6
1	229258	319.324706307	4
1	229474	319.519488698	5
1	229765	319.701852924	4
1	231043	320.796630029	7
1	231049	320.798734	4
1	231346	321.00459585	5
1	231482	321.149691765	6
1	231580	321.259510677	7
1	231613	321.303668683	5
1	231637	321.338340981	5
1	232120	321.964623265	4
1	232378	322.152757482	5
1	232473	322.221184639	5
1	233224	322.636910982	7
1	233233	322.64086342	5
1	233244	322.649789995	5
1	233287	322.67308445	2
1	233360	322.710694516	4
1	233866	323.057767547	5
1	234267	323.50580063	4
1	234510	323.731462957	6
1	235015	324.146835656	7
1	235204	324.361312023	3
1	235342	324.503249536	7
1	235749	325.010629408	5
1	236039	325.328789355	5
1	236138	325.417089614	4
1	236723	325.998959626	4
1	236737	326.042895998	7
1	236906	326.227721477	4
1	237491	326.637939786	4
1	237894	326.916036354	2
1	238087	327.078664123	5
1	238157	327.131145252	5
1	238326	327.283612859	6
1	238719	327.740860268	4
1	239023	328.051224451	5
1	239071	328.102662125	6
1	239100	328.128217513	5
1	239140	328.194497322	4
1	239486	328.544552316	4
1	239500	328.554906175	4
1	239578	328.602649428	5
1	240629	329.471317339	6
1	241262	330.208995476	4
1	241503	330.579985386	7
1	241644	330.780832087	7
1	241689	330.825704345	2
1	241838	330.966398439	7
1	242330	331.349728066	0
1	242856	331.794066442	5
1	243041	331.994857349	5
1	243105	332.066525793	4
1	243150	332.094123615	3
1	243393	332.276525472	3
1	243673	332.547654375	5
1	243690	332.566466579	6
1	243842	332.726668074	5
1	243904	332.811849455	5
1	244794	333.924430203	7
1	244982	334.04635265	3
1	245031	334.069900016	5
1	245857	334.60696484	3
1	245907	334.632046548	5
1	246045	334.722800612	4
1	246065	334.747195875	3
1	246161	334.803647774	5
1	246169	334.816948768	4
1	246266	334.885915296	5
1	246654	335.243849367	3
1	246662	335.247239586	7
1	246806	335.429189014	3
1	246886	335.509144456	4
1	246889	335.509343015	6
1	247341	335.914701313	3
1	247776	336.276804244	4
1	247972	336.469556889	4
1	248413	336.859551284	5
1	248501	336.929312705	6
1	248862	337.320423147	5
1	249356	337.659872095	5
1	249470	337.771521958	7
1	249538	337.848020025	3
1	249696	338.102697262	5
1	250350	338.670301452	6
1	250897	339.075255062	3
1	250973	339.135197559	3
1	251067	339.189284133	5
1	251173	339.26367338	3
1	251539	339.599621609	5
1	251843	339.990150254	3
1	251859	339.993548796	2
1	252156	340.184087702	6
1	252875	340.71365744	6
1	252909	340.744085558	3
1	253086	340.879801258	4
1	253159	340.948739697	6
1	253213	340.989592283	4
1	253596	341.510812452	4
1	253710	341.717541569	5
1	253745	341.746723171	6
1	253865	341.922186201	5
1	253938	342.010299896	4
1	254235	342.318684775	3
1	254486	342.48836424	4
1	254572	342.555837195	6
1	254637	342.586786852	5
1	254978	342.879106618	4
1	255383	343.370989993	4
1	256074	343.888351226	5
1	256118	343.931407846	7
1	256366	344.09954269	3
1	256754	344.488761666	6
1	257005	344.779032736	6
1	257056	344.846275889	5
1	257171	344.947268916	6
1	257286	345.053656274	4
1	257981	345.701961108	4
1	258151	345.868240322	0
1	258435	346.261315256	5
1	258454	346.288464542	4
1	258821	346.588254355	6
1	259159	346.986163241	4
1	259474	347.202828745	4
1	260007	347.552751406	4
1	260347	347.843422711	5
1	260438	347.952972563	5
1	260608	348.160979731	5
1	260861	348.496196063	7
1	261069	348.680146316	5
1	261585	349.055246321	2
1	261656	349.095355122	5
1	262107	349.725362867	6
1	262188	349.866403805	3
1	262446	350.189970646	7
1	262684	350.373787471	3
1	262910	350.651432567	6
1	263691	351.245103195	5
1	263715	351.275557058	4
1	263825	351.351751611	5
1	263860	351.376525367	5
1	264097	351.528147486	7
1	264551	352.157230617	3
1	264723	352.427238562	5
1	265187	352.825801769	3
1	265193	352.832338287	6
1	265508	353.178293039	6
1	265709	353.442466424	6
1	265994	353.743430415	5
1	266411	354.053403082	7
1	266445	354.084874956	4
1	266771	354.35587733	4
1	266803	354.404153746	6
1	266848	354.427993666	7
1	266895	354.462717977	6
1	266947	354.491701448	2
1	267872	355.415851385	2
1	268178	355.831014388	4
1	268253	355.901893487	4
1	268451	356.081724668	5
1	268776	356.373198402	4
1	268799	356.388542499	4
1	268855	356.442425356	7
1	268996	356.595992713	6
1	269016	356.616432691	4
1	269084	356.705959262	6
1	269336	356.95239322	2
1	269371	356.977795321	5
1	269981	357.521474381	4
1	270374	357.88123231	3
1	270473	357.955608087	5
1	270527	358.015602481	3
1	270545	358.043825554	6
1	270572	358.093081782	5
1	270833	358.280994495	6
1	271419	358.607977732	6
1	271958	359.086710522	4
1	272254	359.323088259	6
1	272362	359.415951761	4
1	272599	359.633244682	6
1	273239	360.319106617	4
1	273629	360.61321563	4
1	273715	360.690246558	7
1	274243	361.141530781	6
1	274585	361.376983214	2
1	275012	361.844877393	5
1	275155	361.924377623	4
1	275336	362.079422264	4
1	275388	362.118940588	2
1	276184	362.596934797	6
1	276308	362.669859889	4
1	276901	363.174082541	5
1	277572	363.65154957	6
1	277732	363.787973602	7
1	278604	364.417277034	5
1	278616	364.433292936	5
1	278853	364.60203624	7
1	278919	364.6400257	2
1	279207	364.851031683	5
1	279249	364.873019244	4
1	279441	365.006501434	5
1	279603	365.129107424	6
1	279694	365.217013046	5
1	279697	365.217194429	4
1	279948	365.433134667	7
1	281063	366.353666606	3
1	281412	366.554651321	3
1	281831	366.845236592	4
1	282004	367.009687981	6
1	282069	367.058707852	5
1	282159	367.127210846	5
1	282311	367.269281767	7
1	282401	367.314585961	6
1	283285	368.043918573	5
1	283550	368.295173275	5
1	283672	368.434365229	6
1	283961	368.674000392	6
1	284041	368.737840869	3
1	284435	369.039965388	5
1	285541	369.694384447	6
1	286212	370.235758896	5
1	286233	370.249211288	4
1	286408	370.363703709	6
1	286889	370.71118129	3
1	287158	370.944424055	5
1	287256	371.038587853	6
1	287326	371.12560298	3
1	287690	371.381051155	5
1	288613	372.123779147	6
1	289089	372.78954283	5
1	289566	373.266346546	3
1	289746	373.474580922	3
1	289766	373.495017542	7
1	290086	373.868400141	4
1	290426	374.199764908	6
1	290629	374.364748435	6
1	291425	374.988595211	4
1	291452	375.002261906	4
1	291615	375.157293949	5
1	291763	375.308898006	3
1	291766	375.31464368	5
1	291972	375.525665738	6
1	292031	375.603674221	6
1	292284	375.796302086	6
1	292378	375.885025168	2
1	292786	376.350172291	5
1	293370	376.849959999	5
1	293378	376.85416559	5
1	293721	377.175851152	4
1	294011	377.411019649	6
1	294019	377.41874799	5
1	294050	377.446524702	6
1	294221	377.583873757	4
1	294270	377.614618278	5
1	294755	378.096621689	4
1	295282	378.476762694	6
1	296101	379.274883889	5
1	296144	379.308831839	4
1	296242	379.449977028	5
1	296604	379.812316867	5
1	296939	380.217853668	6
1	297026	380.381069373	5
1	297294	380.707934089	6
1	297712	381.098655902	6
1	297914	381.401870203	5
1	298006	381.542246229	3
1	298055	381.611666658	4
1	298188	381.745743765	3
1	299184	382.620623755	5
1	299385	382.812678111	4
1	299426	382.8446202	6
1	299447	382.882588505	5
1	299666	383.137087333	4
1	300560	383.979987809	4
1	300583	384.002071958	4
1	300727	384.159552152	5
1	301692	384.925913028	4
1	301765	385.001478863	5
1	302015	385.258253864	6
1	302611	385.827034534	4
1	302750	385.931191641	4
1	303574	386.598100576	5
1	303729	386.727417366	2
1	304038	386.980121621	5
1	304923	387.608323908	5
1	304926	387.608990768	5
1	305094	387.768814953	5
1	305208	387.823735904	6
1	305508	388.034580497	6
1	305561	388.079983952	5
1	305683	388.216491279	5
1	305797	388.333682333	6
1	305972	388.531043559	6
1	305987	388.538255122	5
1	306044	388.58579054	5
1	306117	388.6492393	4
1	306128	388.664507821	6
1	306265	388.835703702	4
1	307456	390.110088389	8
1	307625	390.254444637	5
1	307924	390.549348219	6
1	308026	390.687402365	2
1	308382	391.108525677	8
1	308525	391.220925925	5
1	308731	391.388176813	3
1	309055	391.713833389	2
1	309291	391.927351711	4
1	309332	391.964163955	5
1	309565	392.180132735	5
1	309596	392.213441737	5
1	309635	392.264890883	4
1	309655	392.284060705	6
1	309764	392.435171394	5
1	310094	392.665579358	2
1	310242	392.758964484	6
1	310461	392.903284747	5
1	310649	393.101051906	3
1	310730	393.210747684	7
1	310889	393.392559903	7
1	310894	393.40565909	6
1	311265	393.833102978	4
1	311274	393.841957653	5
1	311320	393.910657857	6
1	311337	393.930891018	4
1	311682	394.381627076	6
1	311913	394.625820544	2
1	311919	394.632911582	7
1	312108	394.874529996	4
1	312327	395.090315028	4
1	312411	395.176798957	6
1	312917	395.785682342	3
1	313306	396.154792288	4
1	313553	396.442608493	4
1	313677	396.554094765	5
1	314114	396.896308588	5
1	314162	396.92167662	3
1	314842	397.286990929	4
1	315231	397.541666111	4
1	315518	397.806730971	4
1	315642	397.926275154	4
1	315776	398.053200643	2
1	315973	398.196054607	5
1	316205	398.323524441	6
1	316891	398.82318324	6
1	317058	398.976202049	7
1	317146	399.042422543	4
1	317485	399.403235598	4
1	317708	399.569650642	3
1	318009	399.824573575	5
1	318064	399.881588363	3
1	318155	399.963202645	6
1	318721	400.521254732	5
1	318892	400.631920837	6
1	319613	401.096708822	7
1	319646	401.115981936	6
1	320001	401.351156319	6
1	320375	401.748108424	7
1	320406	401.785350428	3
1	320462	401.840824112	5
1	320497	401.86721887	5
1	320796	402.202602849	5
1	321754	402.963991227	4
1	321865	403.116340345	6
1	321901	403.162927621	6
1	322433	403.553673408	4
1	322717	403.704712856	5
1	323259	404.117296762	5
1	323296	404.137020551	6
1	323517	404.350095485	5
1	324085	405.096769448	4
1	324229	405.260640242	6
1	325443	406.313886616	4
1	325501	406.362279062	4
1	325810	406.640630961	4
1	325853	406.710258153	4
1	325871	406.73798112	6
1	326087	407.024518794	7
1	326969	407.562851728	5
1	327154	407.685320295	6
1	327438	407.897210816	3
1	327818	408.427562406	4
1	327937	408.529778818	4
1	328450	408.838824211	5
1	329257	409.618469654	7
1	329761	410.099901757	5
1	329965	410.314506626	3
1	330307	410.65367365	5
1	330312	410.661441542	4
1	330510	410.883816087	7
1	330662	411.050729273	2
1	330725	411.115334258	3
1	330812	411.222205188	2
1	330831	411.240171868	4
1	330961	411.393346194	5
1	331195	411.722336972	5
1	331479	412.027974548	5
1	331636	412.130288841	4
1	331681	412.149326214	5
1	331883	412.243608442	4
1	332437	412.524291934	5
1	332623	412.675379359	6
1	332643	412.687156352	5
1	332874	412.846544305	4
1	332931	412.912407217	5
1	333042	413.040687398	6
1	333330	413.546237859	3
1	334728	415.170300274	6
1	334757	415.211435516	5
1	334811	415.272991211	3
1	335299	415.900642548	4
1	335678	416.220700168	5
1	336258	416.809180925	6
1	336732	417.210823803	6
1	336735	417.215578549	6
1	336770	417.247079464	4
1	336783	417.257454239	4
1	337070	417.464933864	5
1	337163	417.519307703	4
1	337477	417.74735343	4
1	337692	417.920775084	4
1	337840	418.142668799	6
1	338547	418.919702597	7
1	338849	419.241145102	5
1	338892	419.317059484	5
1	339037	419.4779148	5
1	339410	419.807680588	5
1	339669	420.029911321	6
1	339699	420.050242971	6
1	340177	420.603359762	2
1	340242	420.676491221	5
1	341176	421.299750062	4
1	341395	421.463033849	6
1	341438	421.517900625	4
1	341450	421.526059924	5
1	341504	421.573352406	6
1	341686	421.74800456	5
1	342174	422.099765273	3
1	342395	422.248451127	5
1	342969	422.543504173	5
1	343588	422.993484652	5
1	343622	423.045673657	4
1	343666	423.07871228	4
1	343779	423.165683009	5
1	343843	423.233826615	3
1	343923	423.303750219	5
1	344087	423.496972815	6
1	344309	423.671240224	4
1	344401	423.724664264	6
1	344409	423.731735729	6
1	344864	424.159661931	6
1	344977	424.354640292	5
1	345188	424.525035695	4
1	345259	424.571497692	5
1	345439	424.762165651	5
1	345464	424.786691815	3
1	346115	425.404868451	5
1	346248	425.47242022	3
1	346318	425.523303544	3
1	347306	426.590950741	5
1	347845	427.223299023	5
1	347896	427.260760294	4
1	348217	427.5554769	4
1	348242	427.573387059	3
1	348485	427.798621627	6
1	348527	427.822586646	6
1	348587	427.871438428	3
1	349120	428.436578519	5
1	349223	428.526337664	5
1	349913	429.169321932	5
1	350064	429.40542128	7
1	350499	429.748009705	7
1	350609	429.852194962	6
1	350943	430.070944256	5
1	351444	430.538941466	6
1	351503	430.627591998	6
1	352148	431.356979341	3
1	352549	431.521710798	5
1	353043	431.80606355	6
1	353059	431.811444865	5
1	353084	431.824971432	4
1	354279	432.809629183	5
1	354456	433.0100089	7
1	354499	433.085578027	4
1	354729	433.375353023	5
1	354789	433.449482473	4
1	354954	433.633317853	4
1	354979	433.654277616	4
1	355011	433.678702409	6
1	355149	433.802667172	5
1	355168	433.816006675	5
1	355175	433.817465044	5
1	355286	433.96709455	6
1	355480	434.180156079	5
1	355872	434.577910808	3
1	356223	434.998454706	4
1	356296	435.07890115	7
1	356479	435.2650686	4
1	356889	435.594966514	5
1	357205	435.799575841	5
1	357210	435.801614772	3
1	357364	435.907512689	4
1	357686	436.140432563	7
1	357744	436.181849414	4
1	358566	437.039171688	3
1	358850	437.2559905	4
1	359346	437.621548438	3
1	359428	437.674882715	3
1	360132	438.300439893	5
1	360174	438.321853983	6
1	360315	438.450032235	5
1	360425	438.540358031	5
1	360532	438.657429162	6
1	360651	438.744745291	4
1	360798	438.918175956	6
1	360819	438.942932687	3
1	360929	439.035706361	5
1	361980	439.945398743	4
1	362195	440.100579245	5
1	362328	440.260020147	3
1	362739	440.706783344	4
1	363131	440.997783342	3
1	363463	441.386896026	4
1	363694	441.782302006	6
1	363755	441.844503099	5
1	364319	442.300390391	2
1	364478	442.401275117	3
1	364547	442.437665283	5
1	364594	442.45860351	4
1	365441	442.964265193	4
1	365530	443.030923293	5
1	365867	443.380564228	4
1	365935	443.444971475	5
1	366260	443.785888919	3
1	366310	443.826918439	4
1	366464	443.96956301	3
1	367026	444.517331515	4
1	367252	444.738323881	5
1	367312	444.796049003	5
1	367665	445.233843496	6
1	367882	445.437393617	5
1	368446	445.980188371	3
1	368449	445.982396429	4
1	368494	446.049534409	4
1	368617	446.18057294	6
1	368754	446.301552157	6
1	369357	446.740005156	6
1	369949	447.179460986	6
1	370235	447.510134331	5
1	370275	447.5744082	5
1	370427	447.711763374	5
1	370933	448.321791807	4
1	371454	448.720731922	3
1	371538	448.794564709	3
1	371579	448.832123048	3
1	371729	448.974149593	5
1	371990	449.127798143	5
1	372016	449.136815183	3
1	372683	449.790579497	7
1	372846	450.006624152	4
1	373365	450.78550248	6
1	373368	450.789495914	8
1	373582	450.964229612	4
1	373875	451.184808394	7
1	373975	451.244409982	4
1	374369	451.459029307	5
1	374407	451.482790547	5
1	374437	451.497065817	6
1	374534	451.603993544	5
1	374996	452.111324209	4
1	375263	452.41239449	6
1	375838	453.016530928	5
1	375983	453.243127402	6
1	376386	453.736353581	6
1	376597	453.898835511	3
1	376602	453.904533955	5
1	377369	454.389746379	6
1	377569	454.53909114	7
1	377850	454.735382412	7
1	378068	454.908233653	3
1	378344	455.134911816	6
1	378371	455.164525495	5
1	378540	455.387095265	3
1	378672	455.568043973	5
1	378808	455.716334963	7
1	378961	455.83274141	5
1	379553	456.280971685	3
1	379630	456.378447898	4
1	379958	456.677788629	6
1	381027	457.634192878	3
1	381114	457.709541531	4
1	381292	457.882934937	6
1	381328	457.923642677	3
1	381340	457.932570965	3
1	381460	458.12559823	5
1	381583	458.252325685	3
1	381768	458.370017332	5
1	382032	458.585549808	4
1	382639	459.101229775	5
1	383366	459.893564013	3
1	384388	460.682465169	3
1	384902	461.130001704	4
1	384905	461.134616454	5
1	384989	461.254689819	7
1	385211	461.602783158	5
1	385232	461.649620781	4
1	385302	461.764600602	4
1	385531	462.083967296	2
1	386221	462.63635504	4
1	386496	462.857881596	5
1	386555	462.930239132	3
1	386639	463.021232637	6
1	386874	463.290530953	5
1	387116	463.490636847	6
1	387273	463.602088336	4
1	387500	463.773530473	6
1	387634	463.877140696	6
1	388229	464.454685871	5
1	388645	464.898820591	4
1	388977	465.152293922	3
1	389024	465.191730697	5
1	389352	465.494174038	7
1	389381	465.513432539	6
1	389548	465.665765395	6
1	389780	465.897810768	4
1	390102	466.326593965	4
1	390597	466.748700157	5
1	390671	466.821629149	5
1	390681	466.83795422	5
1	390729	466.879464447	4
1	390968	467.068502112	7
1	391468	467.381703325	5
1	391791	467.598302096	6
1	391913	467.682231329	5
1	392076	467.822313527	7
1	392210	467.952806764	4
1	392294	468.078282998	5
1	392560	468.408540756	3
1	392625	468.496844038	5
1	393064	468.838051093	4
1	393258	468.955591693	5
1	393368	469.028656712	5
1	393668	469.369505863	3
1	393830	469.57210739	4
1	393879	469.635462248	7
1	393933	469.72328226	4
1	394843	470.862865168	5
1	395364	471.232693464	4
1	395651	471.426935065	4
1	395888	471.64167357	5
1	395993	471.746019005	6
1	396299	472.155966879	3
1	396326	472.186454444	6
1	396418	472.301464725	4
1	396829	472.678879049	5
1	397077	472.848170161	4
1	397181	472.932479991	6
1	397186	472.935005145	6
1	397308	473.067596979	5
1	397326	473.078138295	6
1	397346	473.09665184	5
1	397361	473.116205599	7
1	397409	473.167753881	5
1	397735	473.541435681	6
1	397922	473.727680445	6
1	397951	473.75485025	5
1	398425	474.201248478	4
1	399295	474.830902724	5
1	399524	475.057827556	6
1	399532	475.059459878	6
1	399692	475.226474499	6
1	399951	475.593865783	3
1	400102	475.77643093	5
1	400231	475.897540882	4
1	400293	475.938934092	5
1	400405	476.02932446	6
1	400556	476.150354751	5
1	400762	476.391466089	5
1	400966	476.660642402	6
1	401001	476.709139254	6
1	401376	477.028586179	4
1	401412	477.049427357	4
1	401735	477.28078796	7
1	401918	477.485648376	5
1	402037	477.595200156	3
1	402162	477.735408701	6
1	402192	477.764215803	5
1	403046	478.450331692	4
1	403700	479.003698016	4
1	403843	479.127221977	3
1	404468	479.725683248	5
1	405098	480.378234105	5
1	405515	480.699737765	5
1	406899	481.929832962	4
1	407170	482.129822984	6
1	407195	482.15094478	5
1	407645	482.439711213	5
1	408604	483.177630992	3
1	409480	483.855817368	6
1	409998	484.222303403	4
1	410782	484.8315586	4
1	410787	484.834106032	5
1	411001	484.972187587	3
1	411025	484.985091586	5
1	411080	485.049526386	2
1	411158	485.088809279	7
1	411172	485.093380683	6
1	411258	485.165898769	5
1	412346	486.073043709	5
1	413185	486.633446815	6
1	413445	486.823019032	5
1	413456	486.832843678	5
1	413488	486.85242214	4
1	413758	487.095645506	6
1	413763	487.097908638	7
1	413876	487.211407239	5
1	414247	487.426909219	3
1	414397	487.501100015	4
1	414904	487.967114273	4
1	415025	488.078297752	4
1	415074	488.132562626	5
1	415090	488.146781765	3
1	415306	488.38124459	7
1	416067	489.027762291	5
1	416581	489.295164775	5
1	417244	489.704894619	4
1	417339	489.745197422	5
1	417406	489.776997355	5
1	417778	490.092158497	5
1	418767	490.937865226	6
1	419317	491.369089896	4
1	419796	491.629690178	5
1	419836	491.653192101	6
1	419957	491.737518333	5
1	420125	491.882694511	4
1	420357	492.15264092	4
1	420535	492.388332435	3
1	420663	492.558949236	5
1	420677	492.576917299	6
1	420967	492.875584345	5
1	421477	493.463029207	5
1	421588	493.598568141	4
1	421636	493.637736908	6
1	421837	493.874785694	3
1	422740	494.634481636	4
1	422997	494.859952508	5
1	423418	495.286386818	4
1	423429	495.298395915	6
1	424002	495.883221985	6
1	424214	496.078660465	6
1	424380	496.247862869	5
1	424745	496.622944915	5
1	424928	496.755270697	4
1	425033	496.846478477	3
1	425057	496.86710919	5
1	425153	496.940791583	4
1	425910	497.659036375	6
1	426454	498.201527532	5
1	427129	498.772355694	4
1	427242	498.894450459	6
1	427729	499.285548541	6
1	428204	499.706057842	7
1	428213	499.721180372	5
1	428241	499.751912806	4
1	428256	499.765329025	5
1	428407	499.926877511	3
1	428511	500.043750117	4
1	428525	500.064270413	5
1	428646	500.205363897	5
1	428649	500.218691415	5
1	429421	501.159042512	5
1	429800	501.689184596	5
1	430354	502.200819749	5
1	430401	502.245618667	6
1	430423	502.257364584	6
1	430512	502.329913082	6
1	430921	502.566595603	4
1	430979	502.597409092	4
1	431003	502.615757639	4
1	431141	502.740241202	7
1	431206	502.799216446	6
1	431353	502.989025381	3
1	431814	503.361682311	7
1	431839	503.374858505	3
1	431962	503.440962455	3
1	432180	503.595934193	5
1	432288	503.671466229	4
1	432573	503.936775589	5
1	432593	503.961639593	3
1	432602	503.969188579	6
1	432644	504.015352459	4
1	432655	504.028424836	6
1	432708	504.076973981	5
1	432743	504.118333885	6
1	433102	504.390016505	3
1	433486	504.682980885	5
1	434092	505.291772699	3
1	434412	505.615038806	3
1	434909	505.98779595	5
1	434961	506.039469957	6
1	435169	506.230296506	4
1	435195	506.262342968	7
1	435969	506.849714444	5
1	436162	507.007263609	4
1	436603	507.276068294	2
1	437149	507.808024157	5
1	437374	507.957983269	3
1	437487	508.107226271	4
1	437629	508.307369024	6
1	438284	509.020177845	4
1	438329	509.052016021	4
1	438513	509.232443361	2
1	438619	509.347970743	7
1	438722	509.48754472	4
1	438885	509.642588898	2
1	438923	509.6886739	3
1	439094	509.920591506	4
1	439598	510.299449593	4
1	439730	510.42717996	5
1	439745	510.434475729	2
1	440363	511.139741554	6
1	440819	511.486913906	5
1	440830	511.497299082	6
1	441043	511.751238394	7
1	441048	511.754553666	6
1	441514	512.28840843	5
1	441530	512.313331053	4
1	441643	512.452238053	5
1	441656	512.461421308	2
1	441837	512.61325243	6
1	442635	513.404832238	4
1	442863	513.702733139	8
1	442893	513.736405844	4
1	442972	513.840090038	6
1	442978	513.845473606	2
1	443128	514.028548959	2
1	443343	514.288198974	5
1	444018	515.085637937	5
1	444066	515.108867397	6
1	444147	515.207486274	3
1	444218	515.278739434	7
1	444703	515.797625133	5
1	444847	515.933018115	3
1	445137	516.203857304	3
1	445174	516.264697199	5
1	445251	516.366864935	5
1	445301	516.419643591	4
1	447144	517.764505597	5
1	447349	517.976432878	4
1	447537	518.144319958	6
1	447866	518.326891544	5
1	448417	518.74500086	5
1	448642	518.959185159	4
1	448850	519.128674538	4
1	449046	519.375553139	5
1	449500	519.757759109	4
1	449997	520.245858368	4
1	450176	520.440102713	4
1	450240	520.480752958	6
1	450532	520.660825674	4
1	450768	520.81760468	5
1	451343	521.14871586	5
1	451499	521.233827168	6
1	451535	521.265459667	5
1	451687	521.386854997	4
1	451948	521.704190075	3
1	452026	521.789759689	4
1	452068	521.81898292	5
1	452125	521.870756643	7
1	452358	522.113549779	3
1	452372	522.120929568	5
1	452602	522.376889831	4
1	452988	522.602909456	3
1	453465	523.042021253	2
1	453795	523.373437947	4
1	453802	523.377016383	4
1	453835	523.395816922	5
1	454636	523.925105884	4
1	454667	523.954867069	4
1	455014	524.221908122	3
1	455432	524.685471048	3
1	455617	524.950001225	3
1	455803	525.174746441	3
1	456579	525.779063552	5
1	456669	525.851819191	7
1	456874	526.02789395	4
1	456923	526.087511141	4
1	457008	526.168479025	5
1	457146	526.308253361	4
1	457796	527.034458872	4
1	457833	527.065026362	4
1	458083	527.230872967	6
1	458148	527.256912554	4
1	458437	527.398757654	4
1	458460	527.405915393	4
1	458707	527.573822653	3
1	459345	528.132560769	6
1	460001	528.715833945	3
1	460013	528.726696358	7
1	460041	528.741536892	4
1	460837	529.393619696	4
1	461430	529.958828786	7